 *******************************************************************************
 ** Cite this program as: MOPAC2016, Version: 22.097 , James J. P. Stewart,   **
 **                           web-site: HTTP://OpenMOPAC.net.                 **
 *******************************************************************************
 **                                                                           **
 **                                MOPAC2016                                  **
 **                                                                           **
 *******************************************************************************

                              PM7 CALCULATION RESULTS

 *******************************************************************************
 *  CALCULATION DONE:                                Wed May  7 23:23:55 2025  *
 *  PM7        - The PM7 Hamiltonian to be used
 *  MMOK       - APPLY MM CORRECTION TO CONH BARRIER
 *  START_RES  - STARTING RESIDUE NUMBERS DEFINED
 *  Keyword:     START_RES=(1) 
 *  PRECISE    - TIGHTER CRITERIA TO BE USED
 *  EF         - USE EF ROUTINE FOR MINIMUM SEARCH
 *  T=         - A TIME OF 172800.0 SECONDS REQUESTED
 *  DUMP=N     - RESTART FILE WRITTEN EVERY 7200.0 SECONDS REQUESTED
 *  CYCLES=    - DO A MAXIMUM OF 20000 STEPS
 *  GNORM      - EXIT WHEN GRADIENT NORM DROPS BELOW 0.010
 *  NOINTER    - THIS KEYWORD HAS BEEN REPLACED BY PRTINT
 *  VECTORS    - FINAL EIGENVECTORS TO BE PRINTED
 *  GRAPH      - GENERATE FILE FOR GRAPHICS
 *******************************************************************************
 START_RES=(1) PM7 EF PRECISE GNORM=0.01 NOINTER GRAPHF VECTORS MMOK CYCLES=20000

 COMPND    -17.72299717
   ATOM                 CHEMICAL                   X               Y               Z
  NUMBER                 SYMBOL               (ANGSTROMS)     (ANGSTROMS)     (ANGSTROMS)
 
     1       O(HETATM    1  O   UNL A   1)   -1.92200000  *  -0.69500000  *  -0.12600000  *
     2       C(HETATM    2  C   UNL A   1)    0.06900000  *   0.72900000  *  -0.24600000  *
     3       C(HETATM    3  C   UNL A   1)    1.00400000  *  -0.30100000  *   0.38500000  *
     4       C(HETATM    4  C   UNL A   1)   -1.37400000  *   0.55300000  *   0.22700000  *
     5       C(HETATM    5  C   UNL A   1)    2.42300000  *  -0.18800000  *  -0.15700000  *
     6       H(HETATM    6  H   UNL A   1)    0.40100000  *   1.73800000  *   0.00800000  *
     7       H(HETATM    7  H   UNL A   1)    0.10300000  *   0.63100000  *  -1.33600000  *
     8       H(HETATM    8  H   UNL A   1)    0.61300000  *  -1.30100000  *   0.18900000  *
     9       H(HETATM    9  H   UNL A   1)    1.01300000  *  -0.15700000  *   1.46700000  *
    10       H(HETATM   10  H   UNL A   1)   -1.42100000  *   0.59100000  *   1.31800000  *
    11       H(HETATM   11  H   UNL A   1)   -1.99600000  *   1.36800000  *  -0.17500000  *
    12       H(HETATM   12  H   UNL A   1)    2.83000000  *   0.80100000  *   0.04200000  *
    13       H(HETATM   13  H   UNL A   1)    3.07000000  *  -0.92600000  *   0.31200000  *
    14       H(HETATM   14  H   UNL A   1)    2.43900000  *  -0.35300000  *  -1.23200000  *
    15       H(HETATM   15  H   UNL A   1)   -1.84400000  *  -0.80400000  *  -1.08100000  *
 

 General Reference for PM7:
 "Optimization of Parameters for Semiempirical Methods VI: More Modifications to the 
 NDDO Approximations and Re-optimization of Parameters", J. J. P. Stewart, J. Mol. Mod., 1:32, 19 (2013)
 https://link.springer.com/article/10.1007/s00894-012-1667-x

           Empirical Formula: C4 H10 O  =    15 atoms



      MOLECULAR POINT GROUP   :   C1  


      RHF CALCULATION, NO. OF DOUBLY OCCUPIED LEVELS = 16


          Geometry optimization using EF

          DIAGONAL MATRIX USED AS START HESSIAN

 CYCLE:     1 TIME:   0.008 TIME LEFT:  2.00D  GRAD.:    33.423 HEAT: -66.20192
 CYCLE:     2 TIME:   0.008 TIME LEFT:  2.00D  GRAD.:    23.480 HEAT: -66.87441
 CYCLE:     3 TIME:   0.008 TIME LEFT:  2.00D  GRAD.:    22.097 HEAT: -67.04741
 CYCLE:     4 TIME:   0.000 TIME LEFT:  2.00D  GRAD.:    20.091 HEAT: -67.22718
 CYCLE:     5 TIME:   0.008 TIME LEFT:  2.00D  GRAD.:    18.902 HEAT: -67.25267
 CYCLE:     6 TIME:   0.008 TIME LEFT:  2.00D  GRAD.:     8.872 HEAT: -67.39524
 CYCLE:     7 TIME:   0.008 TIME LEFT:  2.00D  GRAD.:    10.533 HEAT: -67.40850
 CYCLE:     8 TIME:   0.008 TIME LEFT:  2.00D  GRAD.:     9.529 HEAT: -67.43492
 CYCLE:     9 TIME:   0.000 TIME LEFT:  2.00D  GRAD.:     4.629 HEAT: -67.46301
 CYCLE:    10 TIME:   0.008 TIME LEFT:  2.00D  GRAD.:     3.664 HEAT: -67.47063
 CYCLE:    11 TIME:   0.008 TIME LEFT:  2.00D  GRAD.:     2.766 HEAT: -67.47658
 CYCLE:    12 TIME:   0.008 TIME LEFT:  2.00D  GRAD.:     1.874 HEAT: -67.48216
 CYCLE:    13 TIME:   0.000 TIME LEFT:  2.00D  GRAD.:     1.874 HEAT: -67.48568
 CYCLE:    14 TIME:   0.008 TIME LEFT:  2.00D  GRAD.:     2.169 HEAT: -67.48697
 CYCLE:    15 TIME:   0.000 TIME LEFT:  2.00D  GRAD.:     2.272 HEAT: -67.48871
 CYCLE:    16 TIME:   0.008 TIME LEFT:  2.00D  GRAD.:     1.481 HEAT: -67.49165
 CYCLE:    17 TIME:   0.000 TIME LEFT:  2.00D  GRAD.:     1.345 HEAT: -67.49489
 CYCLE:    18 TIME:   0.008 TIME LEFT:  2.00D  GRAD.:     1.909 HEAT: -67.49983
 CYCLE:    19 TIME:   0.008 TIME LEFT:  2.00D  GRAD.:     1.660 HEAT: -67.50275
 CYCLE:    20 TIME:   0.000 TIME LEFT:  2.00D  GRAD.:     0.895 HEAT: -67.50477
 CYCLE:    21 TIME:   0.008 TIME LEFT:  2.00D  GRAD.:     0.919 HEAT: -67.50658
 CYCLE:    22 TIME:   0.000 TIME LEFT:  2.00D  GRAD.:     0.956 HEAT: -67.50793
 CYCLE:    23 TIME:   0.008 TIME LEFT:  2.00D  GRAD.:     0.831 HEAT: -67.50917
 CYCLE:    24 TIME:   0.008 TIME LEFT:  2.00D  GRAD.:     0.748 HEAT: -67.51021
 CYCLE:    25 TIME:   0.008 TIME LEFT:  2.00D  GRAD.:     0.894 HEAT: -67.51147
 CYCLE:    26 TIME:   0.000 TIME LEFT:  2.00D  GRAD.:     0.980 HEAT: -67.51317
 CYCLE:    27 TIME:   0.008 TIME LEFT:  2.00D  GRAD.:     0.855 HEAT: -67.51467
 CYCLE:    28 TIME:   0.008 TIME LEFT:  2.00D  GRAD.:     0.708 HEAT: -67.51588
 CYCLE:    29 TIME:   0.000 TIME LEFT:  2.00D  GRAD.:     0.752 HEAT: -67.51681
 CYCLE:    30 TIME:   0.008 TIME LEFT:  2.00D  GRAD.:     0.818 HEAT: -67.51794
 CYCLE:    31 TIME:   0.000 TIME LEFT:  2.00D  GRAD.:     0.812 HEAT: -67.51927
 CYCLE:    32 TIME:   0.008 TIME LEFT:  2.00D  GRAD.:     0.723 HEAT: -67.52047
 CYCLE:    33 TIME:   0.008 TIME LEFT:  2.00D  GRAD.:     0.658 HEAT: -67.52158
 CYCLE:    34 TIME:   0.008 TIME LEFT:  2.00D  GRAD.:     0.643 HEAT: -67.52248
 CYCLE:    35 TIME:   0.000 TIME LEFT:  2.00D  GRAD.:     0.631 HEAT: -67.52331
 CYCLE:    36 TIME:   0.008 TIME LEFT:  2.00D  GRAD.:     0.591 HEAT: -67.52396
 CYCLE:    37 TIME:   0.000 TIME LEFT:  2.00D  GRAD.:     0.535 HEAT: -67.52461
 CYCLE:    38 TIME:   0.008 TIME LEFT:  2.00D  GRAD.:     0.480 HEAT: -67.52512
 CYCLE:    39 TIME:   0.000 TIME LEFT:  2.00D  GRAD.:     0.422 HEAT: -67.52556
 CYCLE:    40 TIME:   0.008 TIME LEFT:  2.00D  GRAD.:     0.401 HEAT: -67.52593
 CYCLE:    41 TIME:   0.008 TIME LEFT:  2.00D  GRAD.:     0.456 HEAT: -67.52636
 CYCLE:    42 TIME:   0.000 TIME LEFT:  2.00D  GRAD.:     0.524 HEAT: -67.52695
 CYCLE:    43 TIME:   0.008 TIME LEFT:  2.00D  GRAD.:     0.498 HEAT: -67.52760
 CYCLE:    44 TIME:   0.000 TIME LEFT:  2.00D  GRAD.:     0.362 HEAT: -67.52808
 CYCLE:    45 TIME:   0.008 TIME LEFT:  2.00D  GRAD.:     0.296 HEAT: -67.52824
 CYCLE:    46 TIME:   0.008 TIME LEFT:  2.00D  GRAD.:     0.293 HEAT: -67.52846
 CYCLE:    47 TIME:   0.000 TIME LEFT:  2.00D  GRAD.:     0.322 HEAT: -67.52866
 CYCLE:    48 TIME:   0.008 TIME LEFT:  2.00D  GRAD.:     0.454 HEAT: -67.52932
 CYCLE:    49 TIME:   0.000 TIME LEFT:  2.00D  GRAD.:     0.309 HEAT: -67.52956
 CYCLE:    50 TIME:   0.008 TIME LEFT:  2.00D  GRAD.:     0.282 HEAT: -67.52972
 CYCLE:    51 TIME:   0.000 TIME LEFT:  2.00D  GRAD.:     0.166 HEAT: -67.52981
 CYCLE:    52 TIME:   0.008 TIME LEFT:  2.00D  GRAD.:     0.128 HEAT: -67.52986
 CYCLE:    53 TIME:   0.000 TIME LEFT:  2.00D  GRAD.:     0.102 HEAT: -67.52992
 CYCLE:    54 TIME:   0.008 TIME LEFT:  2.00D  GRAD.:     0.074 HEAT: -67.52995
 CYCLE:    55 TIME:   0.008 TIME LEFT:  2.00D  GRAD.:     0.057 HEAT: -67.52996
 CYCLE:    56 TIME:   0.000 TIME LEFT:  2.00D  GRAD.:     0.062 HEAT: -67.52997
 CYCLE:    57 TIME:   0.008 TIME LEFT:  2.00D  GRAD.:     0.101 HEAT: -67.53000
 CYCLE:    58 TIME:   0.000 TIME LEFT:  2.00D  GRAD.:     0.146 HEAT: -67.53005
 CYCLE:    59 TIME:   0.008 TIME LEFT:  2.00D  GRAD.:     0.173 HEAT: -67.53011
 CYCLE:    60 TIME:   0.008 TIME LEFT:  2.00D  GRAD.:     0.167 HEAT: -67.53018
 CYCLE:    61 TIME:   0.000 TIME LEFT:  2.00D  GRAD.:     0.149 HEAT: -67.53022
 CYCLE:    62 TIME:   0.008 TIME LEFT:  2.00D  GRAD.:     0.162 HEAT: -67.53025
 CYCLE:    63 TIME:   0.008 TIME LEFT:  2.00D  GRAD.:     0.098 HEAT: -67.53032
 CYCLE:    64 TIME:   0.008 TIME LEFT:  2.00D  GRAD.:     0.066 HEAT: -67.53036
 CYCLE:    65 TIME:   0.008 TIME LEFT:  2.00D  GRAD.:     0.046 HEAT: -67.53037
 CYCLE:    66 TIME:   0.008 TIME LEFT:  2.00D  GRAD.:     0.037 HEAT: -67.53037
 CYCLE:    67 TIME:   0.016 TIME LEFT:  2.00D  GRAD.:     0.035 HEAT: -67.53038
 CYCLE:    68 TIME:   0.008 TIME LEFT:  2.00D  GRAD.:     0.033 HEAT: -67.53038
 CYCLE:    69 TIME:   0.008 TIME LEFT:  2.00D  GRAD.:     0.029 HEAT: -67.53038
 CYCLE:    70 TIME:   0.008 TIME LEFT:  2.00D  GRAD.:     0.027 HEAT: -67.53038
 CYCLE:    71 TIME:   0.008 TIME LEFT:  2.00D  GRAD.:     0.031 HEAT: -67.53039
 CYCLE:    72 TIME:   0.016 TIME LEFT:  2.00D  GRAD.:     0.048 HEAT: -67.53039
 CYCLE:    73 TIME:   0.008 TIME LEFT:  2.00D  GRAD.:     0.043 HEAT: -67.53039
 CYCLE:    74 TIME:   0.008 TIME LEFT:  2.00D  GRAD.:     0.063 HEAT: -67.53041
 CYCLE:    75 TIME:   0.008 TIME LEFT:  2.00D  GRAD.:     0.061 HEAT: -67.53042
 CYCLE:    76 TIME:   0.016 TIME LEFT:  2.00D  GRAD.:     0.063 HEAT: -67.53042
 CYCLE:    77 TIME:   0.008 TIME LEFT:  2.00D  GRAD.:     0.025 HEAT: -67.53047
 CYCLE:    78 TIME:   0.008 TIME LEFT:  2.00D  GRAD.:     0.025 HEAT: -67.53044
 CYCLE:    79 TIME:   0.016 TIME LEFT:  2.00D  GRAD.:     0.010 HEAT: -67.53047
 CYCLE:    80 TIME:   0.000 TIME LEFT:  2.00D  GRAD.:     0.015 HEAT: -67.53047
 CYCLE:    81 TIME:   0.008 TIME LEFT:  2.00D  GRAD.:     0.007 HEAT: -67.53047

     GRADIENT =  0.00705 IS LESS THAN CUTOFF =  0.01000



 -------------------------------------------------------------------------------
 START_RES=(1) PM7 EF PRECISE GNORM=0.01 NOINTER GRAPHF VECTORS MMOK CYCLES=20000

 COMPND    -17.72299717


     GEOMETRY OPTIMISED USING EIGENVECTOR FOLLOWING (EF).     
     SCF FIELD WAS ACHIEVED                                   


                              PM7 CALCULATION
                                                       MOPAC2016 (Version: 22.097 )
                                                       Wed May  7 23:23:56 2025




          FINAL HEAT OF FORMATION =        -67.53047 KCAL/MOL =    -282.54749 KJ/MOL


          COSMO AREA              =        125.50 SQUARE ANGSTROMS
          COSMO VOLUME            =        112.44 CUBIC ANGSTROMS

          GRADIENT NORM           =          0.00705          =       0.00182 PER ATOM
          IONIZATION POTENTIAL    =         10.513770 EV
          HOMO LUMO ENERGIES (EV) =        -10.514  2.982
          NO. OF FILLED LEVELS    =         16
          MOLECULAR WEIGHT        =         74.1224         POINT GROUP:  C1  

          MOLECULAR DIMENSIONS (Angstroms)

            Atom       Atom       Distance
            H    13    H    11     5.61920
            H    12    H    15     3.47838
            H    14    H    10     2.99520


          SCF CALCULATIONS        =         87
 
          WALL-CLOCK TIME         =          0.523 SECONDS
          COMPUTATION TIME        =          0.656 SECONDS




   ATOM                 CHEMICAL                   X               Y               Z
  NUMBER                 SYMBOL               (ANGSTROMS)     (ANGSTROMS)     (ANGSTROMS)
 
     1       O(HETATM    1  O   UNL A   1)   -1.89052734  *  -0.69314326  *  -0.13256588  *
     2       C(HETATM    2  C   UNL A   1)    0.06751536  *   0.75317306  *  -0.24387710  *
     3       C(HETATM    3  C   UNL A   1)    0.98614147  *  -0.29606092  *   0.39342713  *
     4       C(HETATM    4  C   UNL A   1)   -1.37452120  *   0.57122586  *   0.23368221  *
     5       C(HETATM    5  C   UNL A   1)    2.40365109  *  -0.20144909  *  -0.16845064  *
     6       H(HETATM    6  H   UNL A   1)    0.42157725  *   1.77119584  *   0.00438433  *
     7       H(HETATM    7  H   UNL A   1)    0.11628688  *   0.68034089  *  -1.34639273  *
     8       H(HETATM    8  H   UNL A   1)    0.57141432  *  -1.30986975  *   0.22132656  *
     9       H(HETATM    9  H   UNL A   1)    1.00276972  *  -0.16819200  *   1.49249607  *
    10       H(HETATM   10  H   UNL A   1)   -1.45599112  *   0.55569214  *   1.33683689  *
    11       H(HETATM   11  H   UNL A   1)   -2.04524728  *   1.34936278  *  -0.17311888  *
    12       H(HETATM   12  H   UNL A   1)    2.84275348  *   0.78587099  *   0.01192074  *
    13       H(HETATM   13  H   UNL A   1)    3.06330742  *  -0.94378107  *   0.29543537  *
    14       H(HETATM   14  H   UNL A   1)    2.42107630  *  -0.37871182  *  -1.24937017  *
    15       H(HETATM   15  H   UNL A   1)   -1.71997350  *  -0.87829289  *  -1.07531679  *

                             CARTESIAN COORDINATES

   1    O       -1.890527341    -0.693143256    -0.132565880
   2    C        0.067515363     0.753173057    -0.243877104
   3    C        0.986141468    -0.296060919     0.393427130
   4    C       -1.374521204     0.571225856     0.233682206
   5    C        2.403651088    -0.201449086    -0.168450641
   6    H        0.421577252     1.771195835     0.004384332
   7    H        0.116286877     0.680340888    -1.346392732
   8    H        0.571414315    -1.309869755     0.221326557
   9    H        1.002769720    -0.168191996     1.492496073
  10    H       -1.455991122     0.555692142     1.336836890
  11    H       -2.045247285     1.349362783    -0.173118884
  12    H        2.842753476     0.785870988     0.011920743
  13    H        3.063307422    -0.943781071     0.295435366
  14    H        2.421076298    -0.378711823    -1.249370170
  15    H       -1.719973498    -0.878292893    -1.075316790


           Empirical Formula: C4 H10 O  =    15 atoms



      MOLECULAR POINT GROUP   :   C1  


                EIGENVECTORS  


   Root No.       8         9        10        11        12        13        14        15

                 8 A       9 A      10 A      11 A      12 A      13 A      14 A      15 A   

               -15.375   -14.669   -14.339   -12.900   -12.733   -12.177   -11.736   -11.434
  
  S   O    1   -0.0217   -0.1175   -0.1713    0.0401   -0.1233   -0.1148   -0.1686    0.0271
  Px  O    1    0.3118    0.2108    0.1079    0.0394    0.3672   -0.1678    0.2767   -0.0600
  Py  O    1   -0.2217    0.3662    0.1330   -0.3208    0.1051    0.2053    0.1401   -0.1175
  Pz  O    1   -0.0116   -0.0076   -0.2810    0.0743   -0.1545   -0.2619   -0.2405    0.0435
  S   C    2    0.0531    0.0319   -0.0824   -0.0145   -0.0247    0.0688   -0.0830    0.0045
  Px  C    2   -0.2737   -0.1391    0.0998   -0.0840    0.0010    0.3673    0.1658   -0.0961
  Py  C    2   -0.1669    0.0034   -0.3200   -0.2217    0.1450   -0.2507    0.2750   -0.2406
  Pz  C    2    0.2618   -0.0855    0.1533   -0.3561    0.1391    0.0514   -0.3192   -0.2428
  S   C    3   -0.1161   -0.0205    0.0559   -0.0088   -0.0062   -0.0059   -0.0424   -0.0038
  Px  C    3   -0.2580    0.0677   -0.0746    0.1671    0.4399   -0.2558   -0.0170    0.1452
  Py  C    3   -0.0264    0.0868    0.3039   -0.0488    0.1364    0.2534   -0.2199    0.3656
  Pz  C    3    0.0657    0.3001   -0.1261   -0.1657   -0.2016   -0.1485    0.2587    0.3686
  S   C    4    0.0279   -0.0287    0.0663    0.0505    0.0560   -0.0260   -0.0305    0.0200
  Px  C    4    0.4859    0.0524   -0.0480    0.0629    0.1258   -0.2096   -0.1737    0.0452
  Py  C    4   -0.1699   -0.2394   -0.0311    0.0736   -0.1761   -0.0683   -0.1941    0.0352
  Pz  C    4    0.1801   -0.3813   -0.0463    0.2621    0.0767    0.1846    0.3242    0.0355
  S   C    5    0.0441   -0.0002    0.0139    0.0214    0.0637   -0.0283   -0.0472    0.0043
  Px  C    5    0.3103    0.1988   -0.1341   -0.0638   -0.4373    0.2818    0.0962   -0.0917
  Py  C    5   -0.0497    0.1219    0.4995    0.2081   -0.2446   -0.2963    0.1109   -0.2121
  Pz  C    5   -0.0950    0.3841   -0.1823    0.4260    0.1522    0.1932   -0.1665   -0.2110
  S   H    6   -0.0982   -0.0238   -0.2010   -0.2416    0.1055   -0.0420    0.1487   -0.2609
  S   H    7   -0.1501    0.0622   -0.1274    0.2642   -0.1303    0.0260    0.2151    0.2228
  S   H    8    0.0243   -0.1140   -0.1301    0.0055   -0.1897   -0.0947    0.1196   -0.3637
  S   H    9   -0.0173    0.1985   -0.0368   -0.1267   -0.1397   -0.0966    0.1727    0.3384
  S   H   10    0.1154   -0.2831    0.0046    0.2270    0.0775    0.1468    0.2730    0.0510
  S   H   11   -0.3187   -0.0656    0.0519   -0.0275   -0.1517   -0.0112   -0.1441    0.0008
  S   H   12    0.0636    0.1752    0.2615    0.1830   -0.2445   -0.1152    0.0674   -0.2220
  S   H   13    0.1453    0.1395   -0.3442    0.0128    0.0104    0.3395   -0.0983    0.0021
  S   H   14    0.0918   -0.2739    0.0730   -0.3257   -0.0567   -0.1263    0.0988    0.2092
  S   H   15    0.0665   -0.0514    0.1493    0.0313    0.1062    0.1243    0.1764   -0.0096


   Root No.      16        17        18        19        20        21        22        23

                16 A      17 A      18 A      19 A      20 A      21 A      22 A      23 A   

               -10.514     2.982     3.799     4.311     4.592     5.213     5.530     5.680
  
  S   O    1    0.0094    0.2512   -0.0064   -0.0216   -0.0082    0.0569   -0.0357    0.0282
  Px  O    1    0.6915    0.2516   -0.0923   -0.0630    0.0472    0.0393   -0.0313   -0.0051
  Py  O    1   -0.3550    0.4339   -0.0557   -0.0714    0.0178   -0.0436    0.1010    0.0164
  Pz  O    1    0.2150   -0.1588    0.0055    0.0183    0.0162   -0.1491    0.1154   -0.1081
  S   C    2   -0.0507   -0.0366   -0.0551   -0.2619    0.1375    0.0557   -0.0845   -0.0189
  Px  C    2    0.2816    0.0820    0.5804   -0.0070   -0.3157   -0.0997   -0.0342   -0.1109
  Py  C    2   -0.0262    0.0553   -0.1547    0.4165   -0.0333   -0.3334    0.0059   -0.1313
  Pz  C    2    0.0013   -0.0443   -0.0279   -0.3862    0.0985   -0.2947   -0.1067   -0.2055
  S   C    3    0.0224    0.0465   -0.0302    0.2159    0.2381   -0.0286   -0.0050    0.0143
  Px  C    3   -0.1236   -0.0108    0.4252   -0.1735    0.4868   -0.0494   -0.0712    0.0498
  Py  C    3    0.1168    0.0231   -0.2021    0.3870    0.1048   -0.2025   -0.0743    0.1443
  Pz  C    3   -0.0128   -0.0408    0.0369   -0.2956   -0.2702   -0.1467   -0.2148    0.0945
  S   C    4   -0.0067   -0.1546    0.2550    0.1822   -0.1232   -0.1001   -0.0312   -0.2181
  Px  C    4   -0.2613    0.2759    0.4221    0.1782   -0.2804   -0.0877    0.2437    0.1791
  Py  C    4    0.1418    0.5978   -0.0575   -0.0293    0.0307    0.0385   -0.1388   -0.2164
  Pz  C    4   -0.1288    0.2017   -0.1818   -0.2225    0.1120   -0.1815    0.4163    0.1461
  S   C    5   -0.0276   -0.0191   -0.1163   -0.0448   -0.1628    0.0085   -0.0031   -0.0000
  Px  C    5    0.1084    0.0413    0.2890    0.0859    0.5167   -0.0453   -0.0807    0.0912
  Py  C    5   -0.0635    0.0071    0.0042    0.0647    0.0407   -0.1152   -0.0770    0.3119
  Pz  C    5   -0.0074   -0.0169   -0.1040   -0.0934   -0.2108   -0.0823   -0.2328    0.2213
  S   H    6    0.0306   -0.1385    0.0100   -0.1090    0.0046    0.4042    0.0874    0.2164
  S   H    7   -0.0210    0.0462   -0.0403   -0.2102    0.0045   -0.3886   -0.0462   -0.1956
  S   H    8   -0.0156    0.0077    0.0126    0.1169    0.0685   -0.2602   -0.1654    0.1740
  S   H    9    0.0107    0.0116    0.0119    0.1217    0.0884    0.2346    0.2598   -0.1414
  S   H   10   -0.1059   -0.0171    0.0216    0.1326   -0.0356    0.2820   -0.3991    0.0243
  S   H   11    0.3101   -0.0406    0.0571   -0.1365   -0.0631   -0.0715    0.3969    0.4310
  S   H   12   -0.0300   -0.0058   -0.0185   -0.0729   -0.0941    0.1505    0.1566   -0.3840
  S   H   13    0.0744    0.0085   -0.0754    0.1240   -0.0770   -0.0288    0.1094    0.0691
  S   H   14   -0.0015   -0.0092   -0.0213   -0.0755   -0.0962   -0.1167   -0.2687    0.2940
  S   H   15   -0.0160   -0.3442   -0.0111    0.0148    0.0380   -0.2471    0.2191   -0.1411


              NET ATOMIC CHARGES AND DIPOLE CONTRIBUTIONS

  ATOM NO.                 TYPE                        CHARGE      No. of ELECS.   s-Pop       p-Pop       
    1          O(HETATM    1  O   UNL A   1)          -0.548485        6.5485     1.84883     4.69966
    2          C(HETATM    2  C   UNL A   1)          -0.327609        4.3276     1.06628     3.26133
    3          C(HETATM    3  C   UNL A   1)          -0.241131        4.2411     1.05412     3.18701
    4          C(HETATM    4  C   UNL A   1)           0.000367        3.9996     1.08536     2.91428
    5          C(HETATM    5  C   UNL A   1)          -0.442639        4.4426     1.05217     3.39047
    6          H(HETATM    6  H   UNL A   1)           0.145265        0.8547     0.85473
    7          H(HETATM    7  H   UNL A   1)           0.140758        0.8592     0.85924
    8          H(HETATM    8  H   UNL A   1)           0.148400        0.8516     0.85160
    9          H(HETATM    9  H   UNL A   1)           0.135887        0.8641     0.86411
   10          H(HETATM   10  H   UNL A   1)           0.141110        0.8589     0.85889
   11          H(HETATM   11  H   UNL A   1)           0.111945        0.8881     0.88806
   12          H(HETATM   12  H   UNL A   1)           0.141493        0.8585     0.85851
   13          H(HETATM   13  H   UNL A   1)           0.143007        0.8570     0.85699
   14          H(HETATM   14  H   UNL A   1)           0.141525        0.8585     0.85847
   15          H(HETATM   15  H   UNL A   1)           0.310106        0.6899     0.68989

          NET CHARGE ON RESIDUES

      Residue         Charge  Anion or
                              Cation?
      UNL A   1       +0.000
 


 DIPOLE           X         Y         Z       TOTAL
 POINT-CHG.     1.087     1.488    -0.566     1.928
 HYBRID         0.079    -0.179    -0.407     0.452
 SUM            1.166     1.309    -0.974     2.006


          ATOMIC ORBITAL ELECTRON POPULATIONS

                   Atom                  s        px        py        pz   
   O(HETATM    1  O   UNL A   1)   1.84883   1.83810   1.44124   1.42031
   C(HETATM    2  C   UNL A   1)   1.06628   1.02490   1.10618   1.13025
   C(HETATM    3  C   UNL A   1)   1.05412   0.98380   1.09484   1.10838
   C(HETATM    4  C   UNL A   1)   1.08536   0.96897   0.85197   1.09333
   C(HETATM    5  C   UNL A   1)   1.05217   1.06174   1.17237   1.15636
   H(HETATM    6  H   UNL A   1)   0.85473
   H(HETATM    7  H   UNL A   1)   0.85924
   H(HETATM    8  H   UNL A   1)   0.85160
   H(HETATM    9  H   UNL A   1)   0.86411
   H(HETATM   10  H   UNL A   1)   0.85889
   H(HETATM   11  H   UNL A   1)   0.88806
   H(HETATM   12  H   UNL A   1)   0.85851
   H(HETATM   13  H   UNL A   1)   0.85699
   H(HETATM   14  H   UNL A   1)   0.85847
   H(HETATM   15  H   UNL A   1)   0.68989

           DATA FOR GRAPH WRITTEN TO DISK

 **********************
 *                    *
 * JOB ENDED NORMALLY *
 *                    *
 **********************



 TOTAL JOB TIME:             0.54 SECONDS

 == MOPAC DONE ==
