 *******************************************************************************
 ** Cite this program as: MOPAC2016, Version: 22.097 , James J. P. Stewart,   **
 **                           web-site: HTTP://OpenMOPAC.net.                 **
 *******************************************************************************
 **                                                                           **
 **                                MOPAC2016                                  **
 **                                                                           **
 *******************************************************************************

                              PM7 CALCULATION RESULTS

 *******************************************************************************
 *  CALCULATION DONE:                                Sat May 17 18:40:28 2025  *
 *  PM7        - The PM7 Hamiltonian to be used
 *  MMOK       - APPLY MM CORRECTION TO CONH BARRIER
 *  START_RES  - STARTING RESIDUE NUMBERS DEFINED
 *  Keyword:     START_RES=(1) 
 *  PRECISE    - TIGHTER CRITERIA TO BE USED
 *  EF         - USE EF ROUTINE FOR MINIMUM SEARCH
 *  T=         - A TIME OF 172800.0 SECONDS REQUESTED
 *  DUMP=N     - RESTART FILE WRITTEN EVERY 7200.0 SECONDS REQUESTED
 *  CYCLES=    - DO A MAXIMUM OF 20000 STEPS
 *  GNORM      - EXIT WHEN GRADIENT NORM DROPS BELOW 0.010
 *  NOINTER    - THIS KEYWORD HAS BEEN REPLACED BY PRTINT
 *  VECTORS    - FINAL EIGENVECTORS TO BE PRINTED
 *  GRAPH      - GENERATE FILE FOR GRAPHICS
 *******************************************************************************
 START_RES=(1) PM7 EF PRECISE GNORM=0.01 NOINTER GRAPHF VECTORS MMOK CYCLES=20000

 COMPND    -11.39433939
   ATOM                 CHEMICAL                   X               Y               Z
  NUMBER                 SYMBOL               (ANGSTROMS)     (ANGSTROMS)     (ANGSTROMS)
 
     1       O(HETATM    1  O   UNL A   1)   -1.16900000  *   0.24100000  *  -0.05600000  *
     2       C(HETATM    2  C   UNL A   1)   -0.01500000  *  -0.56100000  *   0.03300000  *
     3       C(HETATM    3  C   UNL A   1)    1.27500000  *   0.25200000  *  -0.01600000  *
     4       H(HETATM    4  H   UNL A   1)   -0.04000000  *  -1.16400000  *   0.95300000  *
     5       H(HETATM    5  H   UNL A   1)   -0.06800000  *  -1.23800000  *  -0.82300000  *
     6       H(HETATM    6  H   UNL A   1)    1.34000000  *   0.91600000  *   0.84500000  *
     7       H(HETATM    7  H   UNL A   1)    2.13400000  *  -0.41300000  *  -0.00700000  *
     8       H(HETATM    8  H   UNL A   1)    1.30300000  *   0.85300000  *  -0.92100000  *
     9       H(HETATM    9  H   UNL A   1)   -1.13900000  *   0.90200000  *   0.64500000  *
 

 General Reference for PM7:
 "Optimization of Parameters for Semiempirical Methods VI: More Modifications to the 
 NDDO Approximations and Re-optimization of Parameters", J. J. P. Stewart, J. Mol. Mod., 1:32, 19 (2013)
 https://link.springer.com/article/10.1007/s00894-012-1667-x

           Empirical Formula: C2 H6 O  =     9 atoms



      MOLECULAR POINT GROUP   :   C1  


      RHF CALCULATION, NO. OF DOUBLY OCCUPIED LEVELS = 10


          Geometry optimization using EF

          DIAGONAL MATRIX USED AS START HESSIAN

 CYCLE:     1 TIME:   0.000 TIME LEFT:  2.00D  GRAD.:    27.057 HEAT: -57.01367
 CYCLE:     2 TIME:   0.008 TIME LEFT:  2.00D  GRAD.:    15.657 HEAT: -57.42866
 CYCLE:     3 TIME:   0.008 TIME LEFT:  2.00D  GRAD.:    24.061 HEAT: -57.44809
 CYCLE:     4 TIME:   0.008 TIME LEFT:  2.00D  GRAD.:    19.912 HEAT: -57.59740
 CYCLE:     5 TIME:   0.000 TIME LEFT:  2.00D  GRAD.:    11.903 HEAT: -57.73062
 CYCLE:     6 TIME:   0.008 TIME LEFT:  2.00D  GRAD.:     8.408 HEAT: -57.77748
 CYCLE:     7 TIME:   0.000 TIME LEFT:  2.00D  GRAD.:     9.351 HEAT: -57.79535
 CYCLE:     8 TIME:   0.008 TIME LEFT:  2.00D  GRAD.:     5.286 HEAT: -57.82198
 CYCLE:     9 TIME:   0.000 TIME LEFT:  2.00D  GRAD.:     2.270 HEAT: -57.83306
 CYCLE:    10 TIME:   0.008 TIME LEFT:  2.00D  GRAD.:     1.736 HEAT: -57.83711
 CYCLE:    11 TIME:   0.000 TIME LEFT:  2.00D  GRAD.:     1.649 HEAT: -57.83981
 CYCLE:    12 TIME:   0.008 TIME LEFT:  2.00D  GRAD.:     1.057 HEAT: -57.84155
 CYCLE:    13 TIME:   0.000 TIME LEFT:  2.00D  GRAD.:     0.693 HEAT: -57.84281
 CYCLE:    14 TIME:   0.008 TIME LEFT:  2.00D  GRAD.:     0.629 HEAT: -57.84382
 CYCLE:    15 TIME:   0.000 TIME LEFT:  2.00D  GRAD.:     0.668 HEAT: -57.84486
 CYCLE:    16 TIME:   0.008 TIME LEFT:  2.00D  GRAD.:     0.648 HEAT: -57.84644
 CYCLE:    17 TIME:   0.000 TIME LEFT:  2.00D  GRAD.:     0.536 HEAT: -57.84742
 CYCLE:    18 TIME:   0.008 TIME LEFT:  2.00D  GRAD.:     0.530 HEAT: -57.84798
 CYCLE:    19 TIME:   0.000 TIME LEFT:  2.00D  GRAD.:     0.603 HEAT: -57.84851
 CYCLE:    20 TIME:   0.008 TIME LEFT:  2.00D  GRAD.:     0.731 HEAT: -57.84939
 CYCLE:    21 TIME:   0.000 TIME LEFT:  2.00D  GRAD.:     0.919 HEAT: -57.85099
 CYCLE:    22 TIME:   0.000 TIME LEFT:  2.00D  GRAD.:     0.776 HEAT: -57.85211
 CYCLE:    23 TIME:   0.008 TIME LEFT:  2.00D  GRAD.:     0.815 HEAT: -57.85383
 CYCLE:    24 TIME:   0.008 TIME LEFT:  2.00D  GRAD.:     0.575 HEAT: -57.85444
 CYCLE:    25 TIME:   0.000 TIME LEFT:  2.00D  GRAD.:     0.268 HEAT: -57.85536
 CYCLE:    26 TIME:   0.008 TIME LEFT:  2.00D  GRAD.:     0.234 HEAT: -57.85564
 CYCLE:    27 TIME:   0.000 TIME LEFT:  2.00D  GRAD.:     0.266 HEAT: -57.85584
 CYCLE:    28 TIME:   0.008 TIME LEFT:  2.00D  GRAD.:     0.204 HEAT: -57.85596
 CYCLE:    29 TIME:   0.000 TIME LEFT:  2.00D  GRAD.:     0.167 HEAT: -57.85615
 CYCLE:    30 TIME:   0.008 TIME LEFT:  2.00D  GRAD.:     0.193 HEAT: -57.85636
 CYCLE:    31 TIME:   0.000 TIME LEFT:  2.00D  GRAD.:     0.336 HEAT: -57.85681
 CYCLE:    32 TIME:   0.008 TIME LEFT:  2.00D  GRAD.:     0.394 HEAT: -57.85707
 CYCLE:    33 TIME:   0.000 TIME LEFT:  2.00D  GRAD.:     0.407 HEAT: -57.85745
 CYCLE:    34 TIME:   0.008 TIME LEFT:  2.00D  GRAD.:     0.312 HEAT: -57.85767
 CYCLE:    35 TIME:   0.000 TIME LEFT:  2.00D  GRAD.:     0.279 HEAT: -57.85782
 CYCLE:    36 TIME:   0.008 TIME LEFT:  2.00D  GRAD.:     0.134 HEAT: -57.85796
 CYCLE:    37 TIME:   0.000 TIME LEFT:  2.00D  GRAD.:     0.091 HEAT: -57.85799
 CYCLE:    38 TIME:   0.000 TIME LEFT:  2.00D  GRAD.:     0.055 HEAT: -57.85801
 CYCLE:    39 TIME:   0.008 TIME LEFT:  2.00D  GRAD.:     0.038 HEAT: -57.85802
 CYCLE:    40 TIME:   0.000 TIME LEFT:  2.00D  GRAD.:     0.034 HEAT: -57.85802
 CYCLE:    41 TIME:   0.008 TIME LEFT:  2.00D  GRAD.:     0.026 HEAT: -57.85803
 CYCLE:    42 TIME:   0.000 TIME LEFT:  2.00D  GRAD.:     0.013 HEAT: -57.85803
 CYCLE:    43 TIME:   0.008 TIME LEFT:  2.00D  GRAD.:     0.007 HEAT: -57.85803

     GRADIENT =  0.00681 IS LESS THAN CUTOFF =  0.01000



 -------------------------------------------------------------------------------
 START_RES=(1) PM7 EF PRECISE GNORM=0.01 NOINTER GRAPHF VECTORS MMOK CYCLES=20000

 COMPND    -11.39433939


     GEOMETRY OPTIMISED USING EIGENVECTOR FOLLOWING (EF).     
     SCF FIELD WAS ACHIEVED                                   


                              PM7 CALCULATION
                                                       MOPAC2016 (Version: 22.097 )
                                                       Sat May 17 18:40:28 2025




          FINAL HEAT OF FORMATION =        -57.85803 KCAL/MOL =    -242.07799 KJ/MOL


          COSMO AREA              =         86.92 SQUARE ANGSTROMS
          COSMO VOLUME            =         68.90 CUBIC ANGSTROMS

          GRADIENT NORM           =          0.00681          =       0.00227 PER ATOM
          IONIZATION POTENTIAL    =         10.640511 EV
          HOMO LUMO ENERGIES (EV) =        -10.641  2.965
          NO. OF FILLED LEVELS    =         10
          MOLECULAR WEIGHT        =         46.0688         POINT GROUP:  C1  

          MOLECULAR DIMENSIONS (Angstroms)

            Atom       Atom       Distance
            H     9    H     7     3.61875
            H     6    H     5     3.10420
            H     4    H     8     2.82664


          SCF CALCULATIONS        =         47
 
          WALL-CLOCK TIME         =          0.211 SECONDS
          COMPUTATION TIME        =          0.109 SECONDS




   ATOM                 CHEMICAL                   X               Y               Z
  NUMBER                 SYMBOL               (ANGSTROMS)     (ANGSTROMS)     (ANGSTROMS)
 
     1       O(HETATM    1  O   UNL A   1)   -1.15647579  *   0.23464866  *  -0.06450865  *
     2       C(HETATM    2  C   UNL A   1)   -0.00676547  *  -0.58084836  *   0.04676094  *
     3       C(HETATM    3  C   UNL A   1)    1.26786554  *   0.25270047  *  -0.00962616  *
     4       H(HETATM    4  H   UNL A   1)   -0.08139296  *  -1.16913007  *   0.97876917  *
     5       H(HETATM    5  H   UNL A   1)   -0.10681527  *  -1.25588111  *  -0.82477528  *
     6       H(HETATM    6  H   UNL A   1)    1.37773421  *   0.89133464  *   0.87305457  *
     7       H(HETATM    7  H   UNL A   1)    2.15871357  *  -0.38168693  *  -0.07281029  *
     8       H(HETATM    8  H   UNL A   1)    1.26571223  *   0.90807826  *  -0.89096266  *
     9       H(HETATM    9  H   UNL A   1)   -1.13764852  *   0.95469039  *   0.59311794  *

                             CARTESIAN COORDINATES

   1    O       -1.156475786     0.234648661    -0.064508652
   2    C       -0.006765473    -0.580848360     0.046760944
   3    C        1.267865543     0.252700468    -0.009626162
   4    H       -0.081392958    -1.169130073     0.978769167
   5    H       -0.106815266    -1.255881111    -0.824775276
   6    H        1.377734210     0.891334638     0.873054571
   7    H        2.158713571    -0.381686931    -0.072810294
   8    H        1.265712234     0.908078264    -0.890962663
   9    H       -1.137648524     0.954690387     0.593117945


           Empirical Formula: C2 H6 O  =     9 atoms



      MOLECULAR POINT GROUP   :   C1  


                EIGENVECTORS  


   Root No.       2         3         4         5         6         7         8         9

                 2 A       3 A       4 A       5 A       6 A       7 A       8 A       9 A   

               -26.232   -21.679   -17.177   -15.613   -15.167   -13.456   -13.011   -11.894
  
  S   O    1   -0.4876   -0.1387   -0.1714   -0.1628    0.1667    0.1371    0.1136   -0.2059
  Px  O    1    0.0570    0.1726   -0.1594    0.3884   -0.2673    0.0719   -0.3582    0.3910
  Py  O    1   -0.0973   -0.3200    0.3904   -0.2264   -0.3821    0.0468    0.1447    0.2358
  Pz  O    1   -0.0821   -0.0775    0.4183    0.1292   -0.0131   -0.3876   -0.2833    0.2138
  S   C    2    0.3508    0.4648    0.1160   -0.0148   -0.0872    0.0005    0.0339    0.0001
  Px  C    2    0.2393   -0.1648    0.2371   -0.2129   -0.2562    0.2531    0.1216   -0.2489
  Py  C    2   -0.0318   -0.1930   -0.1582    0.3642   -0.2972    0.2579   -0.2651   -0.1209
  Pz  C    2   -0.0103   -0.0219    0.3992    0.2981    0.2522   -0.0752   -0.1629   -0.3884
  S   C    3    0.5457   -0.3842   -0.0718    0.0104    0.0245    0.0333   -0.0059   -0.0707
  Px  C    3   -0.0297   -0.1887   -0.0912   -0.1972    0.4844   -0.1066   -0.2610    0.3148
  Py  C    3   -0.0602   -0.1579   -0.1687    0.3444    0.0200   -0.4411    0.4296    0.0769
  Pz  C    3    0.0015   -0.0046    0.2344    0.2908    0.2827    0.4559    0.2847    0.2743
  S   H    4    0.1563    0.2670    0.3227    0.0363    0.2256   -0.1665    0.0276   -0.2081
  S   H    5    0.1632    0.2941   -0.0912   -0.3087   -0.0425   -0.0953    0.2406    0.3347
  S   H    6    0.2358   -0.2508    0.0199    0.2839    0.2103    0.0877    0.3442    0.2042
  S   H    7    0.2613   -0.2185   -0.0306   -0.2496    0.2656    0.1219   -0.3652    0.1181
  S   H    8    0.2334   -0.2322   -0.2173   -0.0150   -0.1337   -0.4383    0.0207   -0.1789
  S   H    9   -0.1721   -0.1764    0.3254   -0.0757   -0.1688   -0.1450   -0.0130    0.2187


   Root No.      10        11        12        13        14        15        16        17

                10 A      11 A      12 A      13 A      14 A      15 A      16 A      17 A   

               -10.641     2.965     4.072     5.184     5.449     5.687     5.792     6.307
  
  S   O    1   -0.0180    0.2519   -0.0106   -0.0410    0.0560    0.0499    0.0145   -0.0673
  Px  O    1   -0.3792    0.4522   -0.1396    0.0199    0.0195   -0.0690   -0.0206    0.1514
  Py  O    1   -0.4773   -0.0897   -0.0137   -0.1241    0.0869    0.2202    0.0671   -0.3844
  Pz  O    1    0.5836    0.2577   -0.0017   -0.0479    0.1223    0.1202    0.1062   -0.2323
  S   C    2   -0.0045   -0.1593    0.3349    0.0048   -0.1930   -0.1056   -0.3412   -0.3932
  Px  C    2    0.1034    0.5696    0.4099    0.0624    0.0129   -0.1320   -0.0344    0.2497
  Py  C    2    0.1312   -0.3895    0.4605   -0.0446    0.0765    0.2285    0.3027    0.0712
  Pz  C    2   -0.2615    0.0117   -0.0118   -0.4237   -0.1265    0.2962   -0.3094    0.2372
  S   C    3    0.0722   -0.0219   -0.2113   -0.0264   -0.0037    0.0094    0.0591   -0.0287
  Px  C    3   -0.2076    0.0963    0.5178    0.0814   -0.3589    0.0664    0.1040   -0.0451
  Py  C    3   -0.1166    0.0355    0.3746   -0.1170    0.4117   -0.2166   -0.1878    0.0044
  Pz  C    3    0.1032   -0.0021   -0.0308   -0.3916   -0.1315   -0.3819    0.2821   -0.0789
  S   H    4   -0.3076   -0.0329    0.0298    0.3443    0.2860   -0.0566    0.5844    0.0907
  S   H    5    0.1028   -0.0206    0.0702   -0.4081    0.0958    0.4237    0.1652    0.4259
  S   H    6    0.0436    0.0370   -0.1060    0.4395   -0.0966    0.4181   -0.1665    0.0472
  S   H    7   -0.0502   -0.1427   -0.0401   -0.1539    0.5429   -0.2037   -0.2143    0.0342
  S   H    8   -0.0918    0.0491   -0.1230   -0.2749   -0.3917   -0.1908    0.2878   -0.0503
  S   H    9    0.0261   -0.3453   -0.0096    0.2072   -0.2252   -0.3585   -0.1555    0.5365


              NET ATOMIC CHARGES AND DIPOLE CONTRIBUTIONS

  ATOM NO.                 TYPE                        CHARGE      No. of ELECS.   s-Pop       p-Pop       
    1          O(HETATM    1  O   UNL A   1)          -0.550533        6.5505     1.84866     4.70187
    2          C(HETATM    2  C   UNL A   1)           0.024088        3.9759     1.08039     2.89552
    3          C(HETATM    3  C   UNL A   1)          -0.495951        4.4960     1.05908     3.43687
    4          H(HETATM    4  H   UNL A   1)           0.110944        0.8891     0.88906
    5          H(HETATM    5  H   UNL A   1)           0.138832        0.8612     0.86117
    6          H(HETATM    6  H   UNL A   1)           0.146847        0.8532     0.85315
    7          H(HETATM    7  H   UNL A   1)           0.153521        0.8465     0.84648
    8          H(HETATM    8  H   UNL A   1)           0.162054        0.8379     0.83795
    9          H(HETATM    9  H   UNL A   1)           0.310200        0.6898     0.68980

          NET CHARGE ON RESIDUES

      Residue         Charge  Anion or
                              Cation?
      UNL A   1       +0.000
 


 DIPOLE           X         Y         Z       TOTAL
 POINT-CHG.     1.776    -0.274     0.923     2.020
 HYBRID        -0.045     0.411     0.180     0.451
 SUM            1.731     0.137     1.103     2.057


          ATOMIC ORBITAL ELECTRON POPULATIONS

                   Atom                  s        px        py        pz   
   O(HETATM    1  O   UNL A   1)   1.84866   1.49316   1.53618   1.67253
   C(HETATM    2  C   UNL A   1)   1.08039   0.82514   0.94269   1.12769
   C(HETATM    3  C   UNL A   1)   1.05908   1.09722   1.15092   1.18872
   H(HETATM    4  H   UNL A   1)   0.88906
   H(HETATM    5  H   UNL A   1)   0.86117
   H(HETATM    6  H   UNL A   1)   0.85315
   H(HETATM    7  H   UNL A   1)   0.84648
   H(HETATM    8  H   UNL A   1)   0.83795
   H(HETATM    9  H   UNL A   1)   0.68980

           DATA FOR GRAPH WRITTEN TO DISK

 **********************
 *                    *
 * JOB ENDED NORMALLY *
 *                    *
 **********************



 TOTAL JOB TIME:             0.22 SECONDS

 == MOPAC DONE ==
