 *******************************************************************************
 ** Cite this program as: MOPAC2016, Version: 22.097 , James J. P. Stewart,   **
 **                           web-site: HTTP://OpenMOPAC.net.                 **
 *******************************************************************************
 **                                                                           **
 **                                MOPAC2016                                  **
 **                                                                           **
 *******************************************************************************

                              PM7 CALCULATION RESULTS

 *******************************************************************************
 *  CALCULATION DONE:                                Thu May  8 19:08:20 2025  *
 *  PM7        - The PM7 Hamiltonian to be used
 *  MMOK       - APPLY MM CORRECTION TO CONH BARRIER
 *  START_RES  - STARTING RESIDUE NUMBERS DEFINED
 *  Keyword:     START_RES=(1) 
 *  PRECISE    - TIGHTER CRITERIA TO BE USED
 *  EF         - USE EF ROUTINE FOR MINIMUM SEARCH
 *  T=         - A TIME OF 172800.0 SECONDS REQUESTED
 *  DUMP=N     - RESTART FILE WRITTEN EVERY 7200.0 SECONDS REQUESTED
 *  CYCLES=    - DO A MAXIMUM OF 20000 STEPS
 *  GNORM      - EXIT WHEN GRADIENT NORM DROPS BELOW 0.010
 *  NOINTER    - THIS KEYWORD HAS BEEN REPLACED BY PRTINT
 *  VECTORS    - FINAL EIGENVECTORS TO BE PRINTED
 *  GRAPH      - GENERATE FILE FOR GRAPHICS
 *******************************************************************************
 START_RES=(1) PM7 EF PRECISE GNORM=0.01 NOINTER GRAPHF VECTORS MMOK CYCLES=20000

 COMPND    -11.39433938
   ATOM                 CHEMICAL                   X               Y               Z
  NUMBER                 SYMBOL               (ANGSTROMS)     (ANGSTROMS)     (ANGSTROMS)
 
     1       O(HETATM    1  O   UNL A   1)   -1.16900000  *   0.24100000  *   0.05600000  *
     2       C(HETATM    2  C   UNL A   1)   -0.01500000  *  -0.56100000  *  -0.03300000  *
     3       C(HETATM    3  C   UNL A   1)    1.27500000  *   0.25200000  *   0.01600000  *
     4       H(HETATM    4  H   UNL A   1)   -0.06800000  *  -1.23800000  *   0.82300000  *
     5       H(HETATM    5  H   UNL A   1)   -0.04000000  *  -1.16400000  *  -0.95300000  *
     6       H(HETATM    6  H   UNL A   1)    1.34000000  *   0.91600000  *  -0.84500000  *
     7       H(HETATM    7  H   UNL A   1)    1.30300000  *   0.85200000  *   0.92200000  *
     8       H(HETATM    8  H   UNL A   1)    2.13500000  *  -0.41300000  *   0.00700000  *
     9       H(HETATM    9  H   UNL A   1)   -1.13900000  *   0.90200000  *  -0.64500000  *
 

 General Reference for PM7:
 "Optimization of Parameters for Semiempirical Methods VI: More Modifications to the 
 NDDO Approximations and Re-optimization of Parameters", J. J. P. Stewart, J. Mol. Mod., 1:32, 19 (2013)
 https://link.springer.com/article/10.1007/s00894-012-1667-x

           Empirical Formula: C2 H6 O  =     9 atoms



      MOLECULAR POINT GROUP   :   C1  


      RHF CALCULATION, NO. OF DOUBLY OCCUPIED LEVELS = 10


          Geometry optimization using EF

          DIAGONAL MATRIX USED AS START HESSIAN

 CYCLE:     1 TIME:   0.000 TIME LEFT:  2.00D  GRAD.:    26.821 HEAT: -57.01969
 CYCLE:     2 TIME:   0.000 TIME LEFT:  2.00D  GRAD.:    15.699 HEAT: -57.42898
 CYCLE:     3 TIME:   0.008 TIME LEFT:  2.00D  GRAD.:    24.274 HEAT: -57.44670
 CYCLE:     4 TIME:   0.008 TIME LEFT:  2.00D  GRAD.:    20.373 HEAT: -57.59161
 CYCLE:     5 TIME:   0.000 TIME LEFT:  2.00D  GRAD.:    11.721 HEAT: -57.73271
 CYCLE:     6 TIME:   0.008 TIME LEFT:  2.00D  GRAD.:     8.477 HEAT: -57.77730
 CYCLE:     7 TIME:   0.000 TIME LEFT:  2.00D  GRAD.:     8.966 HEAT: -57.79707
 CYCLE:     8 TIME:   0.000 TIME LEFT:  2.00D  GRAD.:     5.357 HEAT: -57.82172
 CYCLE:     9 TIME:   0.000 TIME LEFT:  2.00D  GRAD.:     2.280 HEAT: -57.83293
 CYCLE:    10 TIME:   0.008 TIME LEFT:  2.00D  GRAD.:     1.767 HEAT: -57.83699
 CYCLE:    11 TIME:   0.000 TIME LEFT:  2.00D  GRAD.:     1.642 HEAT: -57.83970
 CYCLE:    12 TIME:   0.000 TIME LEFT:  2.00D  GRAD.:     1.056 HEAT: -57.84145
 CYCLE:    13 TIME:   0.008 TIME LEFT:  2.00D  GRAD.:     0.691 HEAT: -57.84271
 CYCLE:    14 TIME:   0.000 TIME LEFT:  2.00D  GRAD.:     0.627 HEAT: -57.84372
 CYCLE:    15 TIME:   0.008 TIME LEFT:  2.00D  GRAD.:     0.664 HEAT: -57.84474
 CYCLE:    16 TIME:   0.000 TIME LEFT:  2.00D  GRAD.:     0.730 HEAT: -57.84660
 CYCLE:    17 TIME:   0.008 TIME LEFT:  2.00D  GRAD.:     0.542 HEAT: -57.84733
 CYCLE:    18 TIME:   0.000 TIME LEFT:  2.00D  GRAD.:     0.541 HEAT: -57.84810
 CYCLE:    19 TIME:   0.000 TIME LEFT:  2.00D  GRAD.:     0.604 HEAT: -57.84852
 CYCLE:    20 TIME:   0.008 TIME LEFT:  2.00D  GRAD.:     0.945 HEAT: -57.85030
 CYCLE:    21 TIME:   0.000 TIME LEFT:  2.00D  GRAD.:     0.806 HEAT: -57.85133
 CYCLE:    22 TIME:   0.000 TIME LEFT:  2.00D  GRAD.:     0.907 HEAT: -57.85326
 CYCLE:    23 TIME:   0.000 TIME LEFT:  2.00D  GRAD.:     0.598 HEAT: -57.85399
 CYCLE:    24 TIME:   0.008 TIME LEFT:  2.00D  GRAD.:     0.310 HEAT: -57.85501
 CYCLE:    25 TIME:   0.000 TIME LEFT:  2.00D  GRAD.:     0.268 HEAT: -57.85545
 CYCLE:    26 TIME:   0.000 TIME LEFT:  2.00D  GRAD.:     0.301 HEAT: -57.85572
 CYCLE:    27 TIME:   0.000 TIME LEFT:  2.00D  GRAD.:     0.216 HEAT: -57.85586
 CYCLE:    28 TIME:   0.008 TIME LEFT:  2.00D  GRAD.:     0.181 HEAT: -57.85598
 CYCLE:    29 TIME:   0.008 TIME LEFT:  2.00D  GRAD.:     0.235 HEAT: -57.85627
 CYCLE:    30 TIME:   0.000 TIME LEFT:  2.00D  GRAD.:     0.267 HEAT: -57.85648
 CYCLE:    31 TIME:   0.000 TIME LEFT:  2.00D  GRAD.:     0.611 HEAT: -57.85678
 CYCLE:    32 TIME:   0.008 TIME LEFT:  2.00D  GRAD.:     0.380 HEAT: -57.85723
 CYCLE:    33 TIME:   0.000 TIME LEFT:  2.00D  GRAD.:     0.195 HEAT: -57.85747
 CYCLE:    34 TIME:   0.000 TIME LEFT:  2.00D  GRAD.:     0.186 HEAT: -57.85768
 CYCLE:    35 TIME:   0.008 TIME LEFT:  2.00D  GRAD.:     0.392 HEAT: -57.85689
 CYCLE:    36 TIME:   0.000 TIME LEFT:  2.00D  GRAD.:     0.140 HEAT: -57.85797
 CYCLE:    37 TIME:   0.008 TIME LEFT:  2.00D  GRAD.:     0.088 HEAT: -57.85797
 CYCLE:    38 TIME:   0.000 TIME LEFT:  2.00D  GRAD.:     0.067 HEAT: -57.85800
 CYCLE:    39 TIME:   0.000 TIME LEFT:  2.00D  GRAD.:     0.122 HEAT: -57.85787
 CYCLE:    40 TIME:   0.008 TIME LEFT:  2.00D  GRAD.:     0.034 HEAT: -57.85802
 CYCLE:    41 TIME:   0.000 TIME LEFT:  2.00D  GRAD.:     0.034 HEAT: -57.85801
 CYCLE:    42 TIME:   0.008 TIME LEFT:  2.00D  GRAD.:     0.026 HEAT: -57.85802
 CYCLE:    43 TIME:   0.000 TIME LEFT:  2.00D  GRAD.:     0.024 HEAT: -57.85802
 CYCLE:    44 TIME:   0.000 TIME LEFT:  2.00D  GRAD.:     0.019 HEAT: -57.85803
 CYCLE:    45 TIME:   0.000 TIME LEFT:  2.00D  GRAD.:     0.021 HEAT: -57.85800
 CYCLE:    46 TIME:   0.008 TIME LEFT:  2.00D  GRAD.:     0.014 HEAT: -57.85803
 CYCLE:    47 TIME:   0.000 TIME LEFT:  2.00D  GRAD.:     0.013 HEAT: -57.85803
 CYCLE:    48 TIME:   0.008 TIME LEFT:  2.00D  GRAD.:     0.011 HEAT: -57.85803
 CYCLE:    49 TIME:   0.000 TIME LEFT:  2.00D  GRAD.:     0.011 HEAT: -57.85803
 CYCLE:    50 TIME:   0.000 TIME LEFT:  2.00D  GRAD.:     0.007 HEAT: -57.85803

     GRADIENT =  0.00689 IS LESS THAN CUTOFF =  0.01000



 -------------------------------------------------------------------------------
 START_RES=(1) PM7 EF PRECISE GNORM=0.01 NOINTER GRAPHF VECTORS MMOK CYCLES=20000

 COMPND    -11.39433938


     GEOMETRY OPTIMISED USING EIGENVECTOR FOLLOWING (EF).     
     SCF FIELD WAS ACHIEVED                                   


                              PM7 CALCULATION
                                                       MOPAC2016 (Version: 22.097 )
                                                       Thu May  8 19:08:20 2025




          FINAL HEAT OF FORMATION =        -57.85803 KCAL/MOL =    -242.07799 KJ/MOL


          COSMO AREA              =         87.13 SQUARE ANGSTROMS
          COSMO VOLUME            =         69.06 CUBIC ANGSTROMS

          GRADIENT NORM           =          0.00689          =       0.00230 PER ATOM
          IONIZATION POTENTIAL    =         10.640566 EV
          HOMO LUMO ENERGIES (EV) =        -10.641  2.965
          NO. OF FILLED LEVELS    =         10
          MOLECULAR WEIGHT        =         46.0688         POINT GROUP:  C1  

          MOLECULAR DIMENSIONS (Angstroms)

            Atom       Atom       Distance
            H     9    H     8     3.61886
            H     6    H     4     3.10419
            H     7    H     5     2.82663


          SCF CALCULATIONS        =         54
 
          WALL-CLOCK TIME         =          0.164 SECONDS
          COMPUTATION TIME        =          0.125 SECONDS




   ATOM                 CHEMICAL                   X               Y               Z
  NUMBER                 SYMBOL               (ANGSTROMS)     (ANGSTROMS)     (ANGSTROMS)
 
     1       O(HETATM    1  O   UNL A   1)   -1.15640736  *   0.23460070  *   0.06464327  *
     2       C(HETATM    2  C   UNL A   1)   -0.00671769  *  -0.58089712  *  -0.04685438  *
     3       C(HETATM    3  C   UNL A   1)    1.26793703  *   0.25260459  *   0.00976718  *
     4       H(HETATM    4  H   UNL A   1)   -0.10679203  *  -1.25617879  *   0.82448685  *
     5       H(HETATM    5  H   UNL A   1)   -0.08134015  *  -1.16890618  *  -0.97903323  *
     6       H(HETATM    6  H   UNL A   1)    1.37801469  *   0.89116145  *  -0.87294323  *
     7       H(HETATM    7  H   UNL A   1)    1.26560414  *   0.90807226  *   0.89103859  *
     8       H(HETATM    8  H   UNL A   1)    2.15875462  *  -0.38180854  *   0.07321928  *
     9       H(HETATM    9  H   UNL A   1)   -1.13762234  *   0.95475536  *  -0.59286231  *

                             CARTESIAN COORDINATES

   1    O       -1.156407356     0.234600700     0.064643271
   2    C       -0.006717691    -0.580897121    -0.046854384
   3    C        1.267937027     0.252604594     0.009767183
   4    H       -0.106792035    -1.256178791     0.824486848
   5    H       -0.081340151    -1.168906184    -0.979033232
   6    H        1.378014688     0.891161448    -0.872943235
   7    H        1.265604139     0.908072261     0.891038591
   8    H        2.158754617    -0.381808536     0.073219281
   9    H       -1.137622345     0.954755359    -0.592862307


           Empirical Formula: C2 H6 O  =     9 atoms



      MOLECULAR POINT GROUP   :   C1  


                EIGENVECTORS  


   Root No.       2         3         4         5         6         7         8         9

                 2 A       3 A       4 A       5 A       6 A       7 A       8 A       9 A   

               -26.232   -21.679   -17.177   -15.613   -15.167   -13.456   -13.011   -11.893
  
  S   O    1   -0.4876   -0.1387    0.1714   -0.1628    0.1667   -0.1372    0.1135   -0.2059
  Px  O    1    0.0570    0.1726    0.1594    0.3884   -0.2672   -0.0718   -0.3582    0.3909
  Py  O    1   -0.0973   -0.3200   -0.3905   -0.2263   -0.3822   -0.0467    0.1446    0.2358
  Pz  O    1    0.0821    0.0775    0.4183   -0.1293    0.0131   -0.3876    0.2833   -0.2138
  S   C    2    0.3508    0.4648   -0.1160   -0.0148   -0.0872   -0.0005    0.0339    0.0001
  Px  C    2    0.2393   -0.1648   -0.2371   -0.2128   -0.2562   -0.2531    0.1216   -0.2489
  Py  C    2   -0.0318   -0.1930    0.1581    0.3643   -0.2971   -0.2578   -0.2652   -0.1210
  Pz  C    2    0.0102    0.0219    0.3993   -0.2980   -0.2523   -0.0752    0.1628    0.3884
  S   C    3    0.5457   -0.3842    0.0718    0.0104    0.0245   -0.0333   -0.0059   -0.0706
  Px  C    3   -0.0298   -0.1887    0.0911   -0.1973    0.4844    0.1067   -0.2610    0.3148
  Py  C    3   -0.0602   -0.1579    0.1686    0.3445    0.0201    0.4410    0.4297    0.0770
  Pz  C    3   -0.0015    0.0046    0.2344   -0.2907   -0.2827    0.4561   -0.2845   -0.2743
  S   H    4    0.1632    0.2941    0.0912   -0.3087   -0.0425    0.0953    0.2406    0.3347
  S   H    5    0.1563    0.2670   -0.3227    0.0363    0.2256    0.1665    0.0276   -0.2081
  S   H    6    0.2359   -0.2508   -0.0200    0.2838    0.2104   -0.0879    0.3441    0.2043
  S   H    7    0.2334   -0.2322    0.2173   -0.0149   -0.1337    0.4383    0.0209   -0.1789
  S   H    8    0.2613   -0.2185    0.0307   -0.2497    0.2655   -0.1217   -0.3653    0.1180
  S   H    9   -0.1721   -0.1764   -0.3254   -0.0757   -0.1688    0.1451   -0.0130    0.2187


   Root No.      10        11        12        13        14        15        16        17

                10 A      11 A      12 A      13 A      14 A      15 A      16 A      17 A   

               -10.641     2.965     4.072     5.184     5.449     5.687     5.792     6.307
  
  S   O    1    0.0180    0.2519   -0.0106   -0.0410    0.0560    0.0498    0.0145   -0.0673
  Px  O    1    0.3792    0.4522   -0.1396    0.0199    0.0195   -0.0691   -0.0206    0.1514
  Py  O    1    0.4772   -0.0896   -0.0137   -0.1241    0.0869    0.2202    0.0671   -0.3844
  Pz  O    1    0.5837   -0.2577    0.0017    0.0479   -0.1223   -0.1201   -0.1062    0.2323
  S   C    2    0.0045   -0.1593    0.3349    0.0047   -0.1930   -0.1055   -0.3413   -0.3932
  Px  C    2   -0.1035    0.5696    0.4099    0.0624    0.0129   -0.1320   -0.0344    0.2497
  Py  C    2   -0.1312   -0.3896    0.4605   -0.0448    0.0765    0.2286    0.3026    0.0712
  Pz  C    2   -0.2615   -0.0118    0.0119    0.4237    0.1264   -0.2961    0.3094   -0.2373
  S   C    3   -0.0722   -0.0219   -0.2113   -0.0264   -0.0037    0.0094    0.0591   -0.0287
  Px  C    3    0.2076    0.0963    0.5178    0.0814   -0.3588    0.0664    0.1040   -0.0451
  Py  C    3    0.1165    0.0355    0.3745   -0.1171    0.4117   -0.2168   -0.1877    0.0044
  Pz  C    3    0.1032    0.0021    0.0309    0.3915    0.1316    0.3819   -0.2822    0.0790
  S   H    4   -0.1027   -0.0206    0.0702   -0.4081    0.0959    0.4236    0.1653    0.4259
  S   H    5    0.3076   -0.0329    0.0298    0.3443    0.2859   -0.0567    0.5844    0.0907
  S   H    6   -0.0436    0.0369   -0.1060    0.4395   -0.0963    0.4181   -0.1666    0.0472
  S   H    7    0.0918    0.0491   -0.1230   -0.2747   -0.3918   -0.1906    0.2878   -0.0503
  S   H    8    0.0503   -0.1427   -0.0401   -0.1541    0.5428   -0.2040   -0.2142    0.0341
  S   H    9   -0.0261   -0.3453   -0.0096    0.2072   -0.2253   -0.3585   -0.1556    0.5365


              NET ATOMIC CHARGES AND DIPOLE CONTRIBUTIONS

  ATOM NO.                 TYPE                        CHARGE      No. of ELECS.   s-Pop       p-Pop       
    1          O(HETATM    1  O   UNL A   1)          -0.550532        6.5505     1.84866     4.70187
    2          C(HETATM    2  C   UNL A   1)           0.024088        3.9759     1.08039     2.89552
    3          C(HETATM    3  C   UNL A   1)          -0.495953        4.4960     1.05909     3.43687
    4          H(HETATM    4  H   UNL A   1)           0.138832        0.8612     0.86117
    5          H(HETATM    5  H   UNL A   1)           0.110941        0.8891     0.88906
    6          H(HETATM    6  H   UNL A   1)           0.146843        0.8532     0.85316
    7          H(HETATM    7  H   UNL A   1)           0.162058        0.8379     0.83794
    8          H(HETATM    8  H   UNL A   1)           0.153522        0.8465     0.84648
    9          H(HETATM    9  H   UNL A   1)           0.310199        0.6898     0.68980

          NET CHARGE ON RESIDUES

      Residue         Charge  Anion or
                              Cation?
      UNL A   1       +0.000
 


 DIPOLE           X         Y         Z       TOTAL
 POINT-CHG.     1.776    -0.273    -0.923     2.020
 HYBRID        -0.046     0.411    -0.180     0.451
 SUM            1.731     0.138    -1.103     2.057


          ATOMIC ORBITAL ELECTRON POPULATIONS

                   Atom                  s        px        py        pz   
   O(HETATM    1  O   UNL A   1)   1.84866   1.49318   1.53609   1.67259
   C(HETATM    2  C   UNL A   1)   1.08039   0.82514   0.94270   1.12768
   C(HETATM    3  C   UNL A   1)   1.05909   1.09722   1.15093   1.18872
   H(HETATM    4  H   UNL A   1)   0.86117
   H(HETATM    5  H   UNL A   1)   0.88906
   H(HETATM    6  H   UNL A   1)   0.85316
   H(HETATM    7  H   UNL A   1)   0.83794
   H(HETATM    8  H   UNL A   1)   0.84648
   H(HETATM    9  H   UNL A   1)   0.68980

           DATA FOR GRAPH WRITTEN TO DISK

 **********************
 *                    *
 * JOB ENDED NORMALLY *
 *                    *
 **********************



 TOTAL JOB TIME:             0.17 SECONDS

 == MOPAC DONE ==
