 *******************************************************************************
 ** Cite this program as: MOPAC2016, Version: 22.097 , James J. P. Stewart,   **
 **                           web-site: HTTP://OpenMOPAC.net.                 **
 *******************************************************************************
 **                                                                           **
 **                                MOPAC2016                                  **
 **                                                                           **
 *******************************************************************************

                              PM7 CALCULATION RESULTS

 *******************************************************************************
 *  CALCULATION DONE:                                Wed May  7 23:17:21 2025  *
 *  PM7        - The PM7 Hamiltonian to be used
 *  MMOK       - APPLY MM CORRECTION TO CONH BARRIER
 *  START_RES  - STARTING RESIDUE NUMBERS DEFINED
 *  Keyword:     START_RES=(1) 
 *  PRECISE    - TIGHTER CRITERIA TO BE USED
 *  EF         - USE EF ROUTINE FOR MINIMUM SEARCH
 *  T=         - A TIME OF 172800.0 SECONDS REQUESTED
 *  DUMP=N     - RESTART FILE WRITTEN EVERY 7200.0 SECONDS REQUESTED
 *  CYCLES=    - DO A MAXIMUM OF 20000 STEPS
 *  GNORM      - EXIT WHEN GRADIENT NORM DROPS BELOW 0.010
 *  NOINTER    - THIS KEYWORD HAS BEEN REPLACED BY PRTINT
 *  VECTORS    - FINAL EIGENVECTORS TO BE PRINTED
 *  GRAPH      - GENERATE FILE FOR GRAPHICS
 *******************************************************************************
 START_RES=(1) PM7 EF PRECISE GNORM=0.01 NOINTER GRAPHF VECTORS MMOK CYCLES=20000

 COMPND    -14.55859619
   ATOM                 CHEMICAL                   X               Y               Z
  NUMBER                 SYMBOL               (ANGSTROMS)     (ANGSTROMS)     (ANGSTROMS)
 
     1       O(HETATM    1  O   UNL A   1)    1.81900000  *  -0.09600000  *  -0.05300000  *
     2       C(HETATM    2  C   UNL A   1)   -0.59100000  *  -0.52800000  *  -0.02000000  *
     3       C(HETATM    3  C   UNL A   1)    0.54400000  *   0.49600000  *   0.02800000  *
     4       C(HETATM    4  C   UNL A   1)   -1.95500000  *   0.14700000  *   0.00300000  *
     5       H(HETATM    5  H   UNL A   1)   -0.48500000  *  -1.12500000  *  -0.92800000  *
     6       H(HETATM    6  H   UNL A   1)   -0.50000000  *  -1.20300000  *   0.83600000  *
     7       H(HETATM    7  H   UNL A   1)    0.48100000  *   1.16800000  *  -0.83100000  *
     8       H(HETATM    8  H   UNL A   1)    0.45900000  *   1.09900000  *   0.94500000  *
     9       H(HETATM    9  H   UNL A   1)   -2.07000000  *   0.80400000  *  -0.85500000  *
    10       H(HETATM   10  H   UNL A   1)   -2.74800000  *  -0.59700000  *  -0.02400000  *
    11       H(HETATM   11  H   UNL A   1)   -2.07200000  *   0.74100000  *   0.90700000  *
    12       H(HETATM   12  H   UNL A   1)    1.91000000  *  -0.73400000  *   0.66300000  *
 

 General Reference for PM7:
 "Optimization of Parameters for Semiempirical Methods VI: More Modifications to the 
 NDDO Approximations and Re-optimization of Parameters", J. J. P. Stewart, J. Mol. Mod., 1:32, 19 (2013)
 https://link.springer.com/article/10.1007/s00894-012-1667-x

           Empirical Formula: C3 H8 O  =    12 atoms



      MOLECULAR POINT GROUP   :   C1  


      RHF CALCULATION, NO. OF DOUBLY OCCUPIED LEVELS = 13


          Geometry optimization using EF

          DIAGONAL MATRIX USED AS START HESSIAN

 CYCLE:     1 TIME:   0.000 TIME LEFT:  2.00D  GRAD.:    32.811 HEAT: -61.59440
 CYCLE:     2 TIME:   0.016 TIME LEFT:  2.00D  GRAD.:    19.083 HEAT: -62.25398
 CYCLE:     3 TIME:   0.016 TIME LEFT:  2.00D  GRAD.:    17.928 HEAT: -62.42888
 CYCLE:     4 TIME:   0.008 TIME LEFT:  2.00D  GRAD.:    13.632 HEAT: -62.58752
 CYCLE:     5 TIME:   0.000 TIME LEFT:  2.00D  GRAD.:    16.478 HEAT: -62.59397
 CYCLE:     6 TIME:   0.000 TIME LEFT:  2.00D  GRAD.:    11.400 HEAT: -62.66162
 CYCLE:     7 TIME:   0.008 TIME LEFT:  2.00D  GRAD.:     7.440 HEAT: -62.69463
 CYCLE:     8 TIME:   0.016 TIME LEFT:  2.00D  GRAD.:     2.886 HEAT: -62.71259
 CYCLE:     9 TIME:   0.000 TIME LEFT:  2.00D  GRAD.:     4.147 HEAT: -62.71289
 CYCLE:    10 TIME:   0.000 TIME LEFT:  2.00D  GRAD.:     1.957 HEAT: -62.72032
 CYCLE:    11 TIME:   0.000 TIME LEFT:  2.00D  GRAD.:     3.229 HEAT: -62.72013
 CYCLE:    12 TIME:   0.016 TIME LEFT:  2.00D  GRAD.:     1.141 HEAT: -62.72560
 CYCLE:    13 TIME:   0.000 TIME LEFT:  2.00D  GRAD.:     1.017 HEAT: -62.72777
 CYCLE:    14 TIME:   0.000 TIME LEFT:  2.00D  GRAD.:     1.146 HEAT: -62.72922
 CYCLE:    15 TIME:   0.000 TIME LEFT:  2.00D  GRAD.:     1.350 HEAT: -62.72988
 CYCLE:    16 TIME:   0.023 TIME LEFT:  2.00D  GRAD.:     0.813 HEAT: -62.73098
 CYCLE:    17 TIME:   0.000 TIME LEFT:  2.00D  GRAD.:     1.291 HEAT: -62.73195
 CYCLE:    18 TIME:   0.000 TIME LEFT:  2.00D  GRAD.:     0.955 HEAT: -62.73336
 CYCLE:    19 TIME:   0.000 TIME LEFT:  2.00D  GRAD.:     0.532 HEAT: -62.73436
 CYCLE:    20 TIME:   0.016 TIME LEFT:  2.00D  GRAD.:     0.347 HEAT: -62.73477
 CYCLE:    21 TIME:   0.000 TIME LEFT:  2.00D  GRAD.:     0.221 HEAT: -62.73491
 CYCLE:    22 TIME:   0.000 TIME LEFT:  2.00D  GRAD.:     0.109 HEAT: -62.73497
 CYCLE:    23 TIME:   0.000 TIME LEFT:  2.00D  GRAD.:     0.082 HEAT: -62.73499
 CYCLE:    24 TIME:   0.016 TIME LEFT:  2.00D  GRAD.:     0.086 HEAT: -62.73500
 CYCLE:    25 TIME:   0.000 TIME LEFT:  2.00D  GRAD.:     0.096 HEAT: -62.73502
 CYCLE:    26 TIME:   0.000 TIME LEFT:  2.00D  GRAD.:     0.106 HEAT: -62.73504
 CYCLE:    27 TIME:   0.000 TIME LEFT:  2.00D  GRAD.:     0.120 HEAT: -62.73507
 CYCLE:    28 TIME:   0.016 TIME LEFT:  2.00D  GRAD.:     0.143 HEAT: -62.73510
 CYCLE:    29 TIME:   0.000 TIME LEFT:  2.00D  GRAD.:     0.164 HEAT: -62.73515
 CYCLE:    30 TIME:   0.000 TIME LEFT:  2.00D  GRAD.:     0.183 HEAT: -62.73522
 CYCLE:    31 TIME:   0.000 TIME LEFT:  2.00D  GRAD.:     0.144 HEAT: -62.73525
 CYCLE:    32 TIME:   0.016 TIME LEFT:  2.00D  GRAD.:     0.100 HEAT: -62.73528
 CYCLE:    33 TIME:   0.000 TIME LEFT:  2.00D  GRAD.:     0.058 HEAT: -62.73529
 CYCLE:    34 TIME:   0.000 TIME LEFT:  2.00D  GRAD.:     0.042 HEAT: -62.73530
 CYCLE:    35 TIME:   0.000 TIME LEFT:  2.00D  GRAD.:     0.051 HEAT: -62.73531
 CYCLE:    36 TIME:   0.000 TIME LEFT:  2.00D  GRAD.:     0.046 HEAT: -62.73531
 CYCLE:    37 TIME:   0.016 TIME LEFT:  2.00D  GRAD.:     0.059 HEAT: -62.73531
 CYCLE:    38 TIME:   0.000 TIME LEFT:  2.00D  GRAD.:     0.040 HEAT: -62.73532
 CYCLE:    39 TIME:   0.000 TIME LEFT:  2.00D  GRAD.:     0.035 HEAT: -62.73533
 CYCLE:    40 TIME:   0.000 TIME LEFT:  2.00D  GRAD.:     0.042 HEAT: -62.73533
 CYCLE:    41 TIME:   0.016 TIME LEFT:  2.00D  GRAD.:     0.048 HEAT: -62.73534
 CYCLE:    42 TIME:   0.000 TIME LEFT:  2.00D  GRAD.:     0.051 HEAT: -62.73534
 CYCLE:    43 TIME:   0.000 TIME LEFT:  2.00D  GRAD.:     0.045 HEAT: -62.73535
 CYCLE:    44 TIME:   0.000 TIME LEFT:  2.00D  GRAD.:     0.046 HEAT: -62.73535
 CYCLE:    45 TIME:   0.023 TIME LEFT:  2.00D  GRAD.:     0.022 HEAT: -62.73536
 CYCLE:    46 TIME:   0.000 TIME LEFT:  2.00D  GRAD.:     0.016 HEAT: -62.73536
 CYCLE:    47 TIME:   0.008 TIME LEFT:  2.00D  GRAD.:     0.014 HEAT: -62.73536
 CYCLE:    48 TIME:   0.000 TIME LEFT:  2.00D  GRAD.:     0.014 HEAT: -62.73536
 CYCLE:    49 TIME:   0.000 TIME LEFT:  2.00D  GRAD.:     0.014 HEAT: -62.73536
 CYCLE:    50 TIME:   0.008 TIME LEFT:  2.00D  GRAD.:     0.010 HEAT: -62.73536
 CYCLE:    51 TIME:   0.000 TIME LEFT:  2.00D  GRAD.:     0.008 HEAT: -62.73536

     GRADIENT =  0.00825 IS LESS THAN CUTOFF =  0.01000



 -------------------------------------------------------------------------------
 START_RES=(1) PM7 EF PRECISE GNORM=0.01 NOINTER GRAPHF VECTORS MMOK CYCLES=20000

 COMPND    -14.55859619


     GEOMETRY OPTIMISED USING EIGENVECTOR FOLLOWING (EF).     
     SCF FIELD WAS ACHIEVED                                   


                              PM7 CALCULATION
                                                       MOPAC2016 (Version: 22.097 )
                                                       Wed May  7 23:17:21 2025




          FINAL HEAT OF FORMATION =        -62.73536 KCAL/MOL =    -262.48476 KJ/MOL


          COSMO AREA              =        107.19 SQUARE ANGSTROMS
          COSMO VOLUME            =         90.96 CUBIC ANGSTROMS

          GRADIENT NORM           =          0.00825          =       0.00238 PER ATOM
          IONIZATION POTENTIAL    =         10.591484 EV
          HOMO LUMO ENERGIES (EV) =        -10.591  2.894
          NO. OF FILLED LEVELS    =         13
          MOLECULAR WEIGHT        =         60.0956         POINT GROUP:  C1  

          MOLECULAR DIMENSIONS (Angstroms)

            Atom       Atom       Distance
            H    12    H    10     4.74342
            H     7    H     6     3.03857
            H     5    H     8     2.76065


          SCF CALCULATIONS        =         56
 
          WALL-CLOCK TIME         =          0.250 SECONDS
          COMPUTATION TIME        =          0.156 SECONDS




   ATOM                 CHEMICAL                   X               Y               Z
  NUMBER                 SYMBOL               (ANGSTROMS)     (ANGSTROMS)     (ANGSTROMS)
 
     1       O(HETATM    1  O   UNL A   1)    1.80033813  *  -0.10234148  *  -0.06138309  *
     2       C(HETATM    2  C   UNL A   1)   -0.58395679  *  -0.53186583  *  -0.01217344  *
     3       C(HETATM    3  C   UNL A   1)    0.53267356  *   0.51545711  *   0.03731500  *
     4       C(HETATM    4  C   UNL A   1)   -1.95107700  *   0.14500718  *   0.00044202  *
     5       H(HETATM    5  H   UNL A   1)   -0.46698069  *  -1.15309850  *  -0.92232730  *
     6       H(HETATM    6  H   UNL A   1)   -0.49195019  *  -1.23111605  *   0.83928359  *
     7       H(HETATM    7  H   UNL A   1)    0.51990320  *   1.18347210  *  -0.84424070  *
     8       H(HETATM    8  H   UNL A   1)    0.49824107  *   1.12140217  *   0.95899226  *
     9       H(HETATM    9  H   UNL A   1)   -2.07935919  *   0.81089791  *  -0.86129195  *
    10       H(HETATM   10  H   UNL A   1)   -2.76010945  *  -0.59424844  *  -0.03764504  *
    11       H(HETATM   11  H   UNL A   1)   -2.09879955  *   0.74368522  *   0.90662283  *
    12       H(HETATM   12  H   UNL A   1)    1.92965131  *  -0.74967153  *   0.65666263  *

                             CARTESIAN COORDINATES

   1    O        1.800338125    -0.102341484    -0.061383086
   2    C       -0.583956786    -0.531865831    -0.012173436
   3    C        0.532673555     0.515457108     0.037315001
   4    C       -1.951076998     0.145007182     0.000442024
   5    H       -0.466980694    -1.153098498    -0.922327302
   6    H       -0.491950187    -1.231116046     0.839283593
   7    H        0.519903199     1.183472097    -0.844240696
   8    H        0.498241073     1.121402172     0.958992258
   9    H       -2.079359188     0.810897909    -0.861291948
  10    H       -2.760109445    -0.594248442    -0.037645038
  11    H       -2.098799548     0.743685222     0.906622825
  12    H        1.929651310    -0.749671527     0.656662633


           Empirical Formula: C3 H8 O  =    12 atoms



      MOLECULAR POINT GROUP   :   C1  


                EIGENVECTORS  


   Root No.       5         6         7         8         9        10        11        12

                 5 A       6 A       7 A       8 A       9 A      10 A      11 A      12 A   

               -17.416   -16.015   -14.797   -14.643   -13.470   -12.757   -12.276   -11.549
  
  S   O    1   -0.1584   -0.0428    0.1696    0.2071    0.0446    0.0757   -0.1560   -0.1497
  Px  O    1    0.2297   -0.2529    0.4543    0.1237   -0.0836    0.3212   -0.1470   -0.2238
  Py  O    1   -0.3169    0.3025    0.1988    0.0287    0.3526    0.1444    0.0912   -0.1690
  Pz  O    1    0.4111    0.0180   -0.0473   -0.3808    0.0913   -0.0599    0.4185    0.2045
  S   C    2   -0.0570   -0.0103    0.0481    0.0691    0.0736    0.0033   -0.0017   -0.0391
  Px  C    2    0.0497   -0.0424   -0.3973   -0.0344   -0.2252    0.2677   -0.1869   -0.2077
  Py  C    2    0.1849   -0.2730   -0.0897    0.2481    0.1215   -0.4405   -0.1258   -0.1489
  Pz  C    2    0.2614    0.3916    0.0060    0.2538    0.0023    0.0188   -0.3685    0.3935
  S   C    3    0.0943   -0.0265   -0.0160   -0.0619   -0.0985   -0.0397   -0.0465   -0.0198
  Px  C    3   -0.2567    0.3073   -0.0088   -0.1555    0.1592   -0.0009    0.2302    0.1872
  Py  C    3    0.1091   -0.0625    0.5084   -0.0773   -0.0997    0.2223    0.0962    0.1464
  Pz  C    3    0.3852    0.2716    0.0073   -0.1914    0.3401    0.0365   -0.1111   -0.3602
  S   C    4   -0.0119    0.0164   -0.0247    0.0038    0.0349   -0.0665    0.0182    0.0192
  Px  C    4    0.0567   -0.1736    0.1944    0.3106    0.4218   -0.2212    0.1959    0.1545
  Py  C    4    0.1116   -0.1786   -0.3443    0.2310    0.2087    0.5028    0.1408    0.0824
  Pz  C    4    0.1514    0.3203    0.0053    0.4013   -0.3206   -0.0469    0.3909   -0.2072
  S   H    5   -0.2251   -0.1204    0.0281   -0.2061   -0.0323    0.2004    0.2727   -0.2347
  S   H    6    0.0340    0.3073    0.0466    0.0572   -0.0335    0.2493   -0.1722    0.3005
  S   H    7   -0.1004   -0.1933    0.2018    0.0384   -0.3031    0.0715    0.0842    0.3089
  S   H    8    0.3011    0.1080    0.1955   -0.1665    0.1041    0.1090   -0.0660   -0.2121
  S   H    9   -0.0447   -0.2197   -0.1721   -0.1453    0.2557    0.2470   -0.1804    0.1816
  S   H   10   -0.0837    0.1665    0.0485   -0.2784   -0.3074   -0.1713   -0.1891   -0.1219
  S   H   11    0.1118    0.1373   -0.1547    0.2898   -0.1325    0.1700    0.3063   -0.1159
  S   H   12    0.3108   -0.1488   -0.0338   -0.1578   -0.1379   -0.0364    0.1355    0.1669


   Root No.      13        14        15        16        17        18        19        20

                13 A      14 A      15 A      16 A      17 A      18 A      19 A      20 A   

               -10.591     2.894     4.002     4.321     5.137     5.540     5.609     5.760
  
  S   O    1   -0.0043   -0.2432    0.0407   -0.0728    0.0229   -0.0450   -0.0053    0.0554
  Px  O    1    0.3250    0.4398   -0.1572    0.0402    0.0480   -0.0861    0.0193    0.0986
  Py  O    1    0.5744   -0.0343   -0.0415    0.0026   -0.0902    0.1604    0.0132   -0.1833
  Pz  O    1    0.4798   -0.2628    0.0421   -0.0972    0.0342   -0.0929   -0.0147    0.2071
  S   C    2    0.0716   -0.0345    0.1143    0.2864    0.0538   -0.0360   -0.1183    0.0943
  Px  C    2    0.2220    0.1906    0.5799   -0.3248   -0.0156   -0.0044   -0.0757    0.0035
  Py  C    2    0.2043   -0.0110    0.3068    0.5050   -0.0039   -0.0468   -0.0852    0.0655
  Pz  C    2    0.1018   -0.0007    0.0240    0.0009    0.4116    0.1235   -0.0200   -0.1170
  S   C    3    0.0126    0.1549   -0.3280   -0.0471    0.0192    0.0027    0.0707   -0.3334
  Px  C    3   -0.1243    0.6016    0.2359    0.2796    0.0791   -0.1284   -0.0569    0.1709
  Py  C    3   -0.1980   -0.2754    0.5052    0.1164   -0.0204    0.0724   -0.0819   -0.3272
  Pz  C    3   -0.2166   -0.0043    0.0092   -0.0098    0.3438   -0.3872    0.0536   -0.1434
  S   C    4   -0.0111    0.1024    0.0715   -0.1744   -0.0052    0.0063    0.0115   -0.0183
  Px  C    4   -0.1093    0.2004    0.2403   -0.4871   -0.0387    0.0324    0.3078   -0.0345
  Py  C    4   -0.0580   -0.1002   -0.0445    0.2875    0.0032    0.0056    0.5485    0.0510
  Pz  C    4   -0.0203   -0.0022    0.0017    0.0018    0.2506    0.4173    0.0107    0.1901
  S   H    5   -0.1143   -0.0455    0.0742    0.1278    0.3717    0.1112    0.0360   -0.1394
  S   H    6    0.0159   -0.0489    0.0622    0.1505   -0.4069   -0.1102    0.0566    0.0654
  S   H    7    0.0555    0.0201   -0.0508   -0.0700    0.3149   -0.3797    0.0375    0.3110
  S   H    8   -0.2857    0.0348   -0.0231   -0.0252   -0.2999    0.2698   -0.0535    0.4980
  S   H    9   -0.0123    0.0216   -0.0192   -0.1208    0.2307    0.3515   -0.3137    0.1217
  S   H   10    0.0983    0.0047    0.1623   -0.0176   -0.0134    0.0371    0.6073    0.0352
  S   H   11   -0.0463    0.0221   -0.0219   -0.1111   -0.2410   -0.3767   -0.2863   -0.1836
  S   H   12    0.0122    0.3318   -0.0542    0.1581   -0.1463    0.2867    0.0150   -0.3966


              NET ATOMIC CHARGES AND DIPOLE CONTRIBUTIONS

  ATOM NO.                 TYPE                        CHARGE      No. of ELECS.   s-Pop       p-Pop       
    1          O(HETATM    1  O   UNL A   1)          -0.549987        6.5500     1.84855     4.70144
    2          C(HETATM    2  C   UNL A   1)          -0.306785        4.3068     1.06143     3.24536
    3          C(HETATM    3  C   UNL A   1)           0.004426        3.9956     1.08618     2.90939
    4          C(HETATM    4  C   UNL A   1)          -0.434564        4.4346     1.05028     3.38428
    5          H(HETATM    5  H   UNL A   1)           0.152859        0.8471     0.84714
    6          H(HETATM    6  H   UNL A   1)           0.137146        0.8629     0.86285
    7          H(HETATM    7  H   UNL A   1)           0.140958        0.8590     0.85904
    8          H(HETATM    8  H   UNL A   1)           0.111921        0.8881     0.88808
    9          H(HETATM    9  H   UNL A   1)           0.145994        0.8540     0.85401
   10          H(HETATM   10  H   UNL A   1)           0.145686        0.8543     0.85431
   11          H(HETATM   11  H   UNL A   1)           0.143403        0.8566     0.85660
   12          H(HETATM   12  H   UNL A   1)           0.308944        0.6911     0.69106

          NET CHARGE ON RESIDUES

      Residue         Charge  Anion or
                              Cation?
      UNL A   1       +0.000
 


 DIPOLE           X         Y         Z       TOTAL
 POINT-CHG.    -1.830     0.061     0.968     2.072
 HYBRID         0.142    -0.317     0.209     0.405
 SUM           -1.688    -0.256     1.177     2.074


          ATOMIC ORBITAL ELECTRON POPULATIONS

                   Atom                  s        px        py        pz   
   O(HETATM    1  O   UNL A   1)   1.84855   1.42546   1.65886   1.61712
   C(HETATM    2  C   UNL A   1)   1.06143   0.99693   1.07324   1.17518
   C(HETATM    3  C   UNL A   1)   1.08618   0.79889   0.97885   1.13165
   C(HETATM    4  C   UNL A   1)   1.05028   1.05927   1.14957   1.17544
   H(HETATM    5  H   UNL A   1)   0.84714
   H(HETATM    6  H   UNL A   1)   0.86285
   H(HETATM    7  H   UNL A   1)   0.85904
   H(HETATM    8  H   UNL A   1)   0.88808
   H(HETATM    9  H   UNL A   1)   0.85401
   H(HETATM   10  H   UNL A   1)   0.85431
   H(HETATM   11  H   UNL A   1)   0.85660
   H(HETATM   12  H   UNL A   1)   0.69106

           DATA FOR GRAPH WRITTEN TO DISK

 **********************
 *                    *
 * JOB ENDED NORMALLY *
 *                    *
 **********************



 TOTAL JOB TIME:             0.27 SECONDS

 == MOPAC DONE ==
